  8
# step:    0,  t(fs):  0.000,   E =  -0.201084E-02,   Ek =   0.000000E+00,   Ep =  -0.201084E-02
 Ar   7.9325599417530004        14.001660976296002      -0.92910273432599999     
 Ar  -2.2922944510830003        7.1290861985550000       -6.1842420458160001     
 Ar  -1.1334388175190002       -2.8325293485510001       0.61310273588399999     
 Ar   11.149969805091001       -2.2888362523200003        11.379590423502000     
 Ar   1.6902088183620001       0.95206290644100000        8.1570594024330010     
 Ar   6.0251649027180001        5.4316019347080005        4.7540406415529999     
 Ar   5.5607647136429996        5.5009548825780001       -3.1096387838550004     
 Ar  -4.6767886385850002       -3.9786293309400000        10.559600474190001     
  8
# step:    1,  t(fs):    10.000,   E =  -0.201084E-02,   Ek =   0.254857E-06,   Ep =  -0.201110E-02
 Ar   7.9325137210424517        14.001509496307163      -0.92910487907125083     
 Ar  -2.2921496905263243        7.1290462202675116       -6.1841676969951775     
 Ar  -1.1333822123478583       -2.8324268907193924       0.61323839595304352     
 Ar   11.149908445522691       -2.2888014015847604        11.379555696415368     
 Ar   1.6900517948677733       0.95186233028422451        8.1570373078972818     
 Ar   6.0252041081426038        5.4316568871885789        4.7538137002723886     
 Ar   5.5606514975441712        5.5010563996461510       -3.1094747670240004     
 Ar  -4.6766513898655084       -3.9785310746224747        10.559512356117349     
  8
# step:    2,  t(fs):    20.000,   E =  -0.201084E-02,   Ek =   0.101875E-05,   Ep =  -0.201186E-02
 Ar   7.9323750425666111        14.001055010424480      -0.92911130992162916     
 Ar  -2.2917153809417870        7.1289262825792914       -6.1839446300681145     
 Ar  -1.1332123852429237       -2.8321194970393955       0.61364542506938546     
 Ar   11.149724367483037       -2.2886968535846717        11.379451515803622     
 Ar   1.6895810724524369       0.95126097205220284        8.1569706918537506     
 Ar   6.0253213215269730        5.4318213549837013        4.7531331977126712     
 Ar   5.5603118398167846        5.5013609762021112       -3.1089827516433610     
 Ar  -4.6762396032811324       -3.9782362788507188        10.559247974758676     
  8
# step:    3,  t(fs):    30.000,   E =  -0.201084E-02,   Ek =   0.228964E-05,   Ep =  -0.201313E-02
 Ar   7.9321438572784864        14.000297380888222      -0.92912201672908334     
 Ar  -2.2909914385956389        7.1287263770211036       -6.1835727836333225     
 Ar  -1.1329293014190862       -2.8316071069411697       0.61432396999183769     
 Ar   11.149417572959930       -2.2885226209267819        11.379277883602912     
 Ar   1.6887976916400864       0.95025993868067427        8.1568585598720080     
 Ar   6.0255153380652340        5.4320941730246428        4.7520000953408301     
 Ar   5.5597457121391649        5.5018686882954890       -3.1081628435989903     
 Ar  -4.6755531576881779       -3.9777448632751797        10.558807248718811     
  8
# step:    4,  t(fs):    40.000,   E =  -0.201084E-02,   Ek =   0.406422E-05,   Ep =  -0.201491E-02
 Ar   7.9318200833850598        13.999236378061363      -0.92913698260699706     
 Ar  -2.2899777239644163        7.1284464895043431       -6.1830520553294352     
 Ar  -1.1325329028660391       -2.8308896194274382       0.61527427542223267     
 Ar   11.148988065240154       -2.2882787245901217        11.379034803012591     
 Ar   1.6877033744553702       0.94886106254396640        8.1566992641047857     
 Ar   6.0257841625458957        5.4324734123557263        4.7504159877327128     
 Ar   5.5589530672117693        5.5025796626594836       -3.1070152212001800     
 Ar  -4.6745918516277936       -3.9770566943403223        10.558190042429294     
  8
# step:    5,  t(fs):    50.000,   E =  -0.201084E-02,   Ek =   0.633796E-05,   Ep =  -0.201718E-02
 Ar   7.9314036062751763        13.997871680373208      -0.92915618397003863     
 Ar  -2.2886740417847733        7.1280866003613923       -6.1823823017972090     
 Ar  -1.1320231082961383       -2.8299668930028137       0.61649668416073544     
 Ar   11.148435848870136       -2.2879651938769690        11.378722278454143     
 Ar   1.6863005064192065       0.94706688294982500        8.1564905173887148     
 Ar   6.0261250282840786        5.4329563991017116        4.7483830909847038     
 Ar   5.5579338386113841        5.5034940766874154       -3.1055401379405403     
 Ar  -4.6733554039990688       -3.9761715858267688        10.557396166284493     
  8
# step:    6,  t(fs):    60.000,   E =  -0.201084E-02,   Ek =   0.910523E-05,   Ep =  -0.201995E-02
 Ar   7.9308942784184779        13.996202874240144      -0.92917959058924526     
 Ar  -2.2870801411245600        7.1276466844024595       -6.1815633386270221     
 Ar  -1.1313998130724925       -2.8288387455761406       0.61799163732244677     
 Ar   11.147760929601585       -2.2875820663452853        11.378340315514244     
 Ar   1.6845921118713645       0.94488062076801582        8.1562294125839347     
 Ar   6.0265344231056979        5.4335397404898753        4.7459042269136393     
 Ar   5.5566879405856389        5.5046121584013914       -3.1037379263869194     
 Ar  -4.6718434550057104       -3.9750892996134595        10.556425376833925     
  8
# step:    7,  t(fs):    70.000,   E =  -0.201084E-02,   Ek =   0.123594E-04,   Ep =  -0.202320E-02
 Ar   7.9302919192352670        13.994229453963245      -0.92920716566165251     
 Ar  -2.2851957154764841        7.1271267109892431       -6.1805949402925568     
 Ar  -1.1306628891183736       -2.8275049543371478       0.61975967461441517     
 Ar   11.146963314322598       -2.2871293877229766        11.377888920872472     
 Ar   1.6825818231270848       0.94230614670680757        8.1559124467675090     
 Ar   6.0270081218842781        5.4342193574163185        4.7429828034522803     
 Ar   5.5552152677864326        5.5059341864146321       -3.1016090032200836     
 Ar  -4.6700555673808006       -3.9738095466631211        10.555277377032619     
  8
# step:    8,  t(fs):    80.000,   E =  -0.201084E-02,   Ek =   0.160931E-04,   Ep =  -0.202694E-02
 Ar   7.9295963149371680        13.991950821602400      -0.92923886589360205     
 Ar  -2.2830204028760916        7.1265266441258630       -6.1794768400715760     
 Ar  -1.1298121848093508       -2.8259652556090833       0.62180143467185423     
 Ar   11.146043010974950       -2.2866072118047831        11.377368102214366     
 Ar   1.6802738440905101       0.93934794386857123        8.1555355498081710     
 Ar   6.0275412250180498        5.4349905229300459        4.7396227917417946     
 Ar   5.5535156949404199        5.5074604898894197       -3.0991538754579553     
 Ar  -4.6679912278956524       -3.9723319882354335        10.553951816551949     
  8
# step:    9,  t(fs):    90.000,   E =  -0.201084E-02,   Ek =   0.202983E-04,   Ep =  -0.203114E-02
 Ar   7.9288072183384450        13.989366286826646      -0.92927464159669704     
 Ar  -2.2805537860462257        7.1258464425676129       -6.1782087299549389     
 Ar  -1.1288475248498682       -2.8242193446793875       0.62411765545198905     
 Ar   11.145000028458414       -2.2860156003327532        11.376777868130599     
 Ar   1.6776729090434330       0.93601106531267964        8.1550941167776809     
 Ar   6.0281282021420450        5.4358479059126168        4.7358287005016892     
 Ar   5.5515890764542046        5.5091914484931070       -3.0963731478993930     
 Ar  -4.6656498491604443       -3.9706562373335226        10.552448292154072     
  8
# step:   10,  t(fs):   100.000,   E =  -0.201084E-02,   Ek =   0.249665E-04,   Ep =  -0.203581E-02
 Ar   7.9279243486378173        13.986475066740425      -0.92931443679522951     
 Ar  -2.2777953925705807        7.1250860599481785       -6.1767902605452232     
 Ar  -1.1277687101363107       -2.8222668756108633       0.62670917468351606     
 Ar   11.143834376523065       -2.2853546228613721        11.376118228003177     
 Ar   1.6747842374014776       0.93230108742835616        8.1545830435989437     
 Ar   6.0287629402993854        5.4367856191579884        4.7316055483198545     
 Ar   5.5494352459513649        5.5111274923550670       -3.0932675318338569     
 Ar  -4.6630307717262154       -3.9687818603907803        10.550766348133820     
  8
# step:   11,  t(fs):   110.000,   E =  -0.201085E-02,   Ek =   0.300888E-04,   Ep =  -0.204093E-02
 Ar   7.9269473911706241        13.983276285685552      -0.92935818934377523     
 Ar  -2.2747446950994341        7.1242454449260935       -6.1752210409465897     
 Ar  -1.1265755176089314       -2.8201074610362156       0.62957693036914597     
 Ar   11.142546065650617       -2.2846243566085218        11.375389191879623     
 Ar   1.6716134852801090       0.92822405997087531        8.1539967652938632     
 Ar   6.0294387957490807        5.4377972710078293        4.7269588345497926     
 Ar   5.5470540157378379        5.5132691020279649       -3.0898378550698657     
 Ar  -4.6601332664998996       -3.9667083792065769        10.548905476832807     
  8
# step:   12,  t(fs):   120.000,   E =  -0.201085E-02,   Ek =   0.356564E-04,   Ep =  -0.204650E-02
 Ar   7.9258759971312021        13.979768975018857      -0.92940583105354246     
 Ar  -2.2714011115911554        7.1233245413513018       -6.1735006386478055     
 Ar  -1.1252677000953548       -2.8177406719392613       0.63272196133809333     
 Ar   11.141135106925898       -2.2838248862935111        11.374590770336209     
 Ar   1.6681666947396567       0.92378645364137268        8.1533292961748938     
 Ar   6.0301486485646763        5.4388760196721986        4.7218945095286342     
 Ar   5.5444451761915525        5.5156168084572288       -3.0860850733428946     
 Ar  -4.6569565374864723       -3.9644352731411852        10.546865119231414     
  8
# step:   13,  t(fs):   130.000,   E =  -0.201085E-02,   Ek =   0.416604E-04,   Ep =  -0.205251E-02
 Ar   7.9247097832653584        13.975952072865603      -0.92945728782597448     
 Ar  -2.2677640055936470        7.1223232884528356       -6.1716285794006387     
 Ar  -1.1238449861487319       -2.8151660374265788       0.63614540784466245     
 Ar   11.139601511899645       -2.2829563039634784        11.373722974331301     
 Ar   1.6644502415826525       0.91899510609430124        8.1525742713227647     
 Ar   6.0308849591781728        5.4400146293633940        4.7164189448387326     
 Ar   5.5416084950715190        5.5181711929631332       -3.0820102831713023     
 Ar  -4.6534997248749663       -3.9619619815822085        10.544644665625455     
  8
# step:   14,  t(fs):   140.000,   E =  -0.201085E-02,   Ek =   0.480920E-04,   Ep =  -0.205894E-02
 Ar   7.9234483315328772        13.971824423849075      -0.92951247979203599     
 Ar  -2.2638326865704674        7.1212416210487248       -6.1696043470961710     
 Ar  -1.1223070798839945       -2.8123830444938505       0.63984851220824868     
 Ar   11.137945292443787       -2.2820187088094817        11.372785815049950     
 Ar   1.6604707825599203       0.91385716723896848        8.1517249887077305     
 Ar   6.0316398260451995        5.4412055273901183        4.7105389043287023     
 Ar   5.5385437167408149        5.5209328872404839       -3.0776147362369581     
 Ar  -4.6497619084881352       -3.9592879066970372        10.542243456395534     
  8
# step:   15,  t(fs):   150.000,   E =  -0.201085E-02,   Ek =   0.549431E-04,   Ep =  -0.206579E-02
 Ar   7.9220911887400369        13.967384778797040      -0.92957132145556820     
 Ar  -2.2596064102770419        7.1200794697793990       -6.1674273836419493     
 Ar  -1.1206536608160660       -2.8093911377916911       0.64383261948910253     
 Ar   11.136166460600416       -2.2810122069735970        11.371779303740823     
 Ar   1.6562352028064000       0.90838004466502087        8.1507744513410216     
 Ar   6.0324050436480441        5.4424408613976798        4.7042615165885158     
 Ar   5.5352505612971301        5.5239025733814922       -3.0728998553754212     
 Ar  -4.6457421116189170       -3.9564124164883423        10.539660782878475     
  8
# step:   16,  t(fs):   160.000,   E =  -0.201085E-02,   Ek =   0.622056E-04,   Ep =  -0.207305E-02
 Ar   7.9206378661421910        13.962631794426159      -0.92963372183906834     
 Ar  -2.2550843791930926        7.1188367613659818       -6.1650970888432974     
 Ar  -1.1188843837043210       -2.8061897193963339       0.64809917819307306     
 Ar   11.134265028425624       -2.2799369113483152        11.370703451546598     
 Ar   1.6517505642765804       0.90257134996915600        8.1497154088848909     
 Ar   6.0331721601100021        5.4437125559946375        4.6975942495397609     
 Ar   5.5317287236036687        5.5270809839281130       -3.0678672522687505     
 Ar  -4.6414393052806497       -3.9533348481723949        10.536895888351792     
  8
# step:   17,  t(fs):   170.000,   E =  -0.201085E-02,   Ek =   0.698722E-04,   Ep =  -0.208072E-02
 Ar   7.9190878390165631        13.957564033005893      -0.92969958463024249     
 Ar  -2.2502657430182085        7.1175134188950366       -6.1626128202925656     
 Ar  -1.1169988784080669       -2.8027781485911873       0.65264974099724238     
 Ar   11.132241007829345       -2.2787929413694803        11.369558269328866     
 Ar   1.6470240558858975       0.89643884669503382        8.1485403982011633     
 Ar   6.0339325337643315        5.4450123680739804        4.6905448877588016     
 Ar   5.5279778722123272        5.5304689019608313       -3.0625187469421609     
 Ar  -4.6368524129021855       -3.9500545119031045        10.533947969143894     
  8
# step:   18,  t(fs):   180.000,   E =  -0.201085E-02,   Ek =   0.779362E-04,   Ep =  -0.208878E-02
 Ar   7.9174405462055066        13.952179962004013      -0.92976880832768849     
 Ar  -2.2451495992383577        7.1161093621314775       -6.1599738932705952     
 Ar  -1.1149967497583524       -2.7991557416659973       0.65748596548684846     
 Ar   11.130094410412271       -2.2775804228039460        11.368343767488572     
 Ar   1.6420629459919576       0.88999040052376610        8.1472417823771046     
 Ar   6.0346773881005431        5.4463319402140948        4.6831215130997643     
 Ar   5.5239976481701776        5.5340671612316852       -3.0568563891736873     
 Ar  -4.6319803155037427       -3.9465706948680896        10.530816175884681     
  8
# step:   19,  t(fs):   190.000,   E =  -0.201085E-02,   Ek =   0.863913E-04,   Ep =  -0.209724E-02
 Ar   7.9156953896306126        13.946477953716371      -0.92984128638409136     
 Ar  -2.2397349937721227        7.1146245078615413       -6.1571795806652467     
 Ar  -1.1128775774520001       -2.7953217717411403       0.66260961489214976     
 Ar   11.127825247300875       -2.2762994875330320        11.367059955782940     
 Ar   1.6368745377713301       0.88323393227191294        8.1458117878310574     
 Ar   6.0353978645964776        5.4476628516280465        4.6753324891284045     
 Ar   5.5197876636993506        5.5378766463501989       -3.0508824819335754     
 Ar  -4.6268218573945186       -3.9428826657868967        10.527499614913360     
  8
# step:   20,  t(fs):   200.000,   E =  -0.201085E-02,   Ek =   0.952320E-04,   Ep =  -0.210608E-02
 Ar   7.9138517337782099        13.940456284884378      -0.92991690734535382     
 Ar  -2.2340209217065339        7.1130587702679229       -6.1542291129124820     
 Ar  -1.1106409159744304       -2.7912754686254821       0.66802255881187622     
 Ar   11.125433528981436       -2.2749502733327609        11.365706843139762     
 Ar   1.6314661279671705       0.87617737417084995        8.1442425391663118     
 Ar   6.0360850730334015        5.4489966662158986        4.6671864498191704     
 Ar   5.5153475007395532        5.5418982930318572       -3.0445996069770662     
 Ar  -4.6213758524388027       -3.9389896798456623        10.523997349862778     
  8
# step:   21,  t(fs):   210.000,   E =  -0.201085E-02,   Ek =   0.104453E-03,   Ep =  -0.211530E-02
 Ar   7.9119089051569791        13.934113136304358      -0.92999555498413633     
 Ar  -2.2280063281335987        7.1114120613393617       -6.1511216779661844     
 Ar  -1.1082862945585950       -2.7870160187172530       0.67372677390760005     
 Ar   11.122919265133914       -2.2735329236517297        11.364284437469816     
 Ar   1.6258449694029722       0.86882862981865794        8.1425260915078965     
 Ar   6.0367301389803751        5.4503249773609186        4.6586922929080705     
 Ar   5.5106767093416087        5.5461330884198041       -3.0380106527203097     
 Ar  -4.6156410909436518       -3.9348909841071160        10.520308403442243     
  8
# step:   22,  t(fs):   220.000,   E =  -0.201085E-02,   Ek =   0.114051E-03,   Ep =  -0.212490E-02
 Ar   7.9098661917286126        13.927446592433881      -0.93007710842634506     
 Ar  -2.2216901091000003        7.1096842913172367       -6.1478564213037332     
 Ar  -1.1058132171881989       -2.7825425649585447       0.67972434455069997     
 Ar   11.120282464466362       -2.2720475873873420        11.362792745478099     
 Ar   1.6200182375809047       0.86119553811590166        8.1406544601214748     
 Ar   6.0373242482207718        5.4516394491941105        4.6498591782349212     
 Ar   5.5057748058996800        5.5505820714916263       -3.0311188445339696     
 Ar  -4.6096163472281271       -3.9305858234398681        10.516431759443849     
  8
# step:   23,  t(fs):   230.000,   E =  -0.201085E-02,   Ek =   0.124022E-03,   Ep =  -0.213487E-02
 Ar   7.9077228423126948        13.920454641001157      -0.93016144226917774     
 Ar  -2.2150711126839866        7.1078753691819561       -6.1444324459752409     
 Ar  -1.1032211626543689       -2.7778542068553578       0.68601746340054115     
 Ar   11.117523134550460       -2.2704944186609786        11.361231772474449     
 Ar   1.6139930016115769       0.85328584142197195        8.1386196471747638     
 Ar   6.0378586879760689        5.4529318541303882        4.6406965313512352     
 Ar   5.5006412712092665        5.5552463335643099       -3.0239277775922369     
 Ar  -4.6033003879417054       -3.9260734470164453        10.512366365000663     
  8
# step:   24,  t(fs):   240.000,   E =  -0.201085E-02,   Ek =   0.134361E-03,   Ep =  -0.214521E-02
 Ar   7.9054780659672668        13.913135172624660      -0.93024842668941898     
 Ar  -2.2081481402152328        7.1059852031822226       -6.1408488127054026     
 Ar  -1.1005095846760398       -2.7729500005766190       0.69260843188898225     
 Ar   11.114641281658640       -2.2688735765925263        11.359601522183986     
 Ar   1.6077761996573841       0.84510715810076775        8.1364136655586492     
 Ar   6.0383248848581230        5.4541941065522535        4.6312140526152801     
 Ar   5.4952755483377116        5.5601270189118255       -3.0164414524159366     
 Ar  -4.5966919812078482       -3.9213531154355832        10.508111133128857     
  8
# step:   25,  t(fs):   250.000,   E =  -0.201085E-02,   Ek =   0.145067E-03,   Ep =  -0.215592E-02
 Ar   7.9031310313468399        13.905485980451408      -0.93033792754075872     
 Ar  -2.2009199476554322        7.1040137014105849       -6.1371045400580728     
 Ar  -1.0976779120956131       -2.7678289591473151       0.69949966058228963     
 Ar   11.111636910603098       -2.2671852250745368        11.357901996557725     
 Ar   1.6013746190150948       0.83666695956464854        8.1340285597365263     
 Ar   6.0387144395499135        5.4554182925818617        4.6214217319438733     
 Ar   5.4896770402939188        5.5652253255112054       -3.0086643132465545     
 Ar  -4.5897899066778143       -3.9164241085308551        10.503664945589968     
  8
# step:   26,  t(fs):   260.000,   E =  -0.201085E-02,   Ek =   0.156136E-03,   Ep =  -0.216699E-02
 Ar   7.9006808660400072        13.897504759823642      -0.93042980643899809     
 Ar  -2.1933852471596462        7.1019607724290266       -6.1331986046750107     
 Ar  -1.0947255491629060       -2.7624900527528315       0.70669366938690670     
 Ar   11.108510024576853       -2.2654295325461091        11.356133195583531     
 Ar   1.5947948809158521       0.82797255187464402        8.1314564236358944     
 Ar   6.0390191582753001        5.4565966959390462        4.6113298693411764     
 Ar   5.4838451074843482        5.5705425059344700       -3.0006012893825553     
 Ar  -4.5825929665898046       -3.9112857339348865        10.499026656114051     
  8
# step:   27,  t(fs):   270.000,   E =  -0.201085E-02,   Ek =   0.167566E-03,   Ep =  -0.217842E-02
 Ar   7.8981266558891940        13.889189107985167      -0.93052392083409674     
 Ar  -2.1855427088410071        7.0998263259487464       -6.1291299416017431     
 Ar  -1.0916518759220897       -2.7569322091738364       0.71419308756019995     
 Ar   11.105260624996909       -2.2636066717664294        11.354295117097504     
 Ar   1.5880434300827611       0.81903106191331143        8.1286894156355434     
 Ar   6.0392310811702838        5.4577218199309412        4.6009491012775117     
 Ar   5.4777790649433173        5.5760798684052704       -2.9922578395994242     
 Ar  -4.5750999979393656       -3.9059373364761707        10.494195094029502     
  8
# step:   28,  t(fs):   280.000,   E =  -0.201085E-02,   Ek =   0.179354E-03,   Ep =  -0.219020E-02
 Ar   7.8954674442955870        13.880536523840240      -0.93062012406810446     
 Ar  -2.1773909627643095        7.0976102735687352       -6.1248974447152218     
 Ar  -1.0884562487182425       -2.7511543143736010       0.72200065348117892     
 Ar   11.101888711349327       -2.2617168195877233        11.352387756595713     
 Ar   1.5811265290578522       0.80984942811452543        8.1257197707348467     
 Ar   6.0393425077113374        5.4587864056581505        4.5902904329450331     
 Ar   5.4714781793272556        5.5818387780406029       -2.9836399997593532     
 Ar  -4.5673098858788039       -3.9003783084939303        10.489169068350904     
  8
# step:   29,  t(fs):   290.000,   E =  -0.201085E-02,   Ek =   0.191497E-03,   Ep =  -0.220235E-02
 Ar   7.8927022315127768        13.871544407779696      -0.93071826541810621     
 Ar  -2.1689286011974063        7.0953125295782522       -6.1204999672698941     
 Ar  -1.0851380008423543       -2.7451552132625801       0.73011921412914538     
 Ar   11.098394281035967       -2.2597601567272139        11.350411107046094     
 Ar   1.5740502572913033       0.80043439571171715        8.1225398100189619     
 Ar   6.0393460193907398        5.4597834465533346        4.5793652763705985     
 Ar   5.4649416656651502        5.5878206582993464       -2.9747544336941671     
 Ar  -4.5592215784761745       -3.8946081011655540        10.483947372382362     
  8
# step:   30,  t(fs):   300.000,   E =  -0.201085E-02,   Ek =   0.203992E-03,   Ep =  -0.221484E-02
 Ar   7.8898299739332911        13.862210061591037      -0.93081819012339329     
 Ar  -2.1601541811531737        7.0929330118288787       -6.1159363225810539     
 Ar  -1.0816964433361540       -2.7389337106684244       0.73855172421011683     
 Ar   11.094777329222413       -2.2577368675374925        11.348365158700155     
 Ar   1.5668205149760364       0.79079251645228965        8.1191419475555531     
 Ar   6.0392344998546985        5.4607061993910468        4.5681854943175848     
 Ar   5.4581686838611256        5.5940269926605994       -2.9656084874144839     
 Ar  -4.5508341029782367       -3.8886262369509352        10.478528788900515     
  8
# step:   31,  t(fs):   310.000,   E =  -0.201085E-02,   Ek =   0.216835E-03,   Ep =  -0.222769E-02
 Ar   7.8868495833728431        13.852530688471328      -0.93091973939614414     
 Ar  -2.1510662272592773        7.0904716426824645       -6.1112052848668927     
 Ar  -1.0781308659810465       -2.7324885725434318       0.74730124486153882     
 Ar   11.091037848686478       -2.2556471397745508        11.346249898904009     
 Ar   1.5594430316096428       0.78093015272059962        8.1155186948755507     
 Ar   6.0390011527378071        5.4615481919233968        4.5567634498557048     
 Ar   5.4511583349502599        5.6004593265557183       -2.9562102466575628     
 Ar  -4.5421465837367068       -3.8824323232685245        10.472912095988789     
  8
# step:   32,  t(fs):   320.000,   E =  -0.201085E-02,   Ek =   0.230021E-03,   Ep =  -0.224087E-02
 Ar   7.8837599263579117        13.842503393164209      -0.93102275041496108     
 Ar  -2.1416632349980840        7.0879283500420263       -6.1063055902735925     
 Ar  -1.0744405384987776       -2.7258185274458246       0.75637094185504750     
 Ar   11.087175829666492       -2.2534911643625408        11.344065311908150     
 Ar   1.5519233792724170       0.77085348601436909        8.1116626632031323     
 Ar   6.0386395174374723        5.4623032273054539        4.5451120614186102     
 Ar   5.4439096571156886        5.6071192695784102       -2.9465685977339175     
 Ar  -4.5331582619731208       -3.8760260675291041        10.467096073602525     
  8
# step:   33,  t(fs):   330.000,   E =  -0.201085E-02,   Ek =   0.243545E-03,   Ep =  -0.225440E-02
 Ar   7.8805598234231242        13.832125182244958      -0.93112705630065273     
 Ar  -2.1319436743649947        7.0853030684734657       -6.1012359381111674     
 Ar  -1.0706247119952872       -2.7189222683362693       0.76576408320465761     
 Ar   11.083191259708451       -2.2512691351541689        11.341811378675171     
 Ar   1.5442669906243620       0.76056852972895406        8.1075665636093568     
 Ar   6.0381434830748653        5.4629653854781619        4.5332448631006761     
 Ar   5.4364216214841647        5.6140084979970606       -2.9366932915664274     
 Ar  -4.5238685175746864       -3.8694072936651618        10.461079510953379     
  8
# step:   34,  t(fs):   340.000,   E =  -0.201085E-02,   Ek =   0.257402E-03,   Ep =  -0.226826E-02
 Ar   7.8772480484258960        13.821392964580395      -0.93123248607367637     
 Ar  -2.1219059940003198        7.0825957404269513       -6.0959949923315939     
 Ar  -1.0666826206836011       -2.7117984547367922       0.77548403607347149     
 Ar   11.079084123510864       -2.2489812486854559        11.339488076684582     
 Ar   1.5364791816446222       0.75008114621979805        8.1032232052704387     
 Ar   6.0375073008850970        5.4635290216759698        4.5211760698638930     
 Ar   5.4286931277290194        5.6211287575923645       -2.9265950107330463     
 Ar  -4.5142768931315782       -3.8625759603062320        10.454861214810926     
  8
# step:   35,  t(fs):   350.000,   E =  -0.201085E-02,   Ek =   0.271584E-03,   Ep =  -0.228244E-02
 Ar   7.8738233278868845        13.810303551993680      -0.93133886459264592     
 Ar  -2.1115486258577589        7.0798063175678685       -6.0905813832852065     
 Ar  -1.0626134839266708       -2.7044457153058183       0.78553426285553918     
 Ar   11.074854402766034       -2.2466277039234366        11.337095379733643     
 Ar   1.5285651791630799       0.73939706813485284        8.0986254920165184     
 Ar   6.0367255952691226        5.4639887622224093        4.5089206472302727     
 Ar   5.4207229995244468        5.6284818668410317       -2.9162854392227531     
 Ar  -4.5043831204451390       -3.8555321807635896        10.448440018829626     
  8
# step:   36,  t(fs):   360.000,   E =  -0.201085E-02,   Ek =   0.286083E-03,   Ep =  -0.229694E-02
 Ar   7.8702843403660463        13.798853660167454      -0.93144601247326686     
 Ar  -2.1008699904817605        7.0769347622284737       -6.0849937097964153     
 Ar  -1.0584165086468615       -2.6968626508905955       0.79591831629050946     
 Ar   11.070502075996286       -2.2442087020052091        11.334633257733095     
 Ar   1.5205301532650402       0.72852192403497917        8.0937664173608113     
 Ar   6.0357933737236236        5.4643394977705881        4.4964943849213759     
 Ar   5.4125099799138034        5.6360697204624106       -2.9057773344914488     
 Ar  -4.4941871497561792       -3.8482762450011028        10.441814794020333     
  8
# step:   37,  t(fs):   370.000,   E =  -0.201086E-02,   Ek =   0.300888E-03,   Ep =  -0.231174E-02
 Ar   7.8666297158854928        13.787039909822647      -0.93155374598696528     
 Ar  -2.0898685029767372        7.0739810489928132       -6.0792305416056651     
 Ar  -1.0540908921554553       -2.6890478381268683       0.80663983344680379     
 Ar   11.066027118383474       -2.2417244459665895        11.332101676496423     
 Ar   1.5123792546851402       0.71746126835056745        8.0886390582031602     
 Ar   6.0347060358430165        5.4645763741381579        4.4839139737714468     
 Ar   5.4040527266779232        5.6438942933389171       -2.8950846012573823     
 Ar  -4.4836891819628555       -3.8408086437826467        10.434984460497173     
  8
# step:   38,  t(fs):   380.000,   E =  -0.201086E-02,   Ek =   0.315988E-03,   Ep =  -0.232685E-02
 Ar   7.8628580354118904        13.774858828214430      -0.93166187693831892     
 Ar  -2.0785425797635719        7.0709451664290608       -6.0732904222313140     
 Ar  -1.0496358254631810       -2.6809998336655405       0.81770252838376511     
 Ar   11.061429501589942       -2.2391751404584759        11.329500597521246     
 Ar   1.5041176573450326       0.70622061575606043        8.0832365674073952     
 Ar   6.0334593815598918        5.4646947808788671        4.4711970850811005     
 Ar   5.3953498078180013        5.6519576448125894       -2.8842223663017608     
 Ar  -4.4728897041180051       -3.8331300951999920        10.427948000642880     
  8
# step:   39,  t(fs):   390.000,   E =  -0.201086E-02,   Ek =   0.331372E-03,   Ep =  -0.234223E-02
 Ar   7.8589678304129249        13.762306850991333      -0.93177021252015779     
 Ar  -2.0668906462333392        7.0678271189852788       -6.0671718723128958     
 Ar  -1.0450504971415788       -2.6727171791173476       0.82911018327406494     