  8
# step:    0,  t(fs):  0.000,   E =  -0.468215E-03,   Ek =   0.000000E+00,   Ep =  -0.468215E-03
 H    1.2563258160759001        7.0512105859740002        1.3526772807366001     
 H    7.0779369822063005        1.3504152785949002        2.2160817974700001E-002
 H    5.1911966494442998        6.4021501418592006       -2.2602522553314004     
 H   0.24132747160050003        12.334521934162801       0.25860145788060002     
 H    1.8700219259553001        13.356722024805300        4.5491886631347001     
 H    11.837790421242900        4.3061113051655999      -0.16523765018400002     
 H    6.1841588978675999        10.781613055322399        1.2004314974901000     
 H    1.0572034871928000        1.1463324186993000       0.10626118832910000     
  8
# step:    1,  t(fs):     5.000,   E =  -0.468623E-03,   Ek =   0.132512E-04,   Ep =  -0.481874E-03
 H    1.2562872768919280        7.0510615002419605        1.3531070406650714     
 H    7.0774946061087647        1.3506814416659167        2.2096763180922963E-002
 H    5.1916668678725664        6.4018202158442810       -2.2603385739586104     
 H   0.23846193891039549        12.332606540490719       0.25020838792389372     
 H    1.8733936508065183        13.358391624564893        4.5572836288683733     
 H    11.837584850141097        4.3062207950826448      -0.16527731685876709     
 H    6.1834400481532130        10.781491840220205        1.2004990935472410     
 H    1.0576324127011172        1.1468027864728816       0.10625197666227487     
  8
# step:    2,  t(fs):    10.000,   E =  -0.469474E-03,   Ek =   0.472872E-04,   Ep =  -0.516761E-03
 H    1.2561751547826563        7.0506151720898966        1.3543927015520574     
 H    7.0761684618992158        1.3514794451889298        2.1904929732881450E-002
 H    5.1930733689259334        6.4008318039693535       -2.2605944495232753     
 H   0.23024617256297558        12.327097417877516       0.22603152527510981     
 H    1.8831285220115577        13.363161729719183        4.5805662031589796     
 H    11.836967653053357        4.3065490935565895      -0.16539637288327660     
 H    6.1812834474459679        10.781128317828943        1.2007021955094868     
 H    1.0589188709039372        1.1482137643530916       0.10622426720843653     
  8
# step:    3,  t(fs):    15.000,   E =  -0.470146E-03,   Ek =   0.894913E-04,   Ep =  -0.559637E-03
 H    1.2559997344950065        7.0498747636221744        1.3565233648653710     
 H    7.0739615152836146        1.3528078164552395        2.1586318322430006E-002
 H    5.1954038170275361        6.3991889874661672       -2.2610107296787931     
 H   0.21765962397623709        12.318602467572664       0.18864867627049137     
 H    1.8982485670999789        13.370419272473196        4.6164588519258531     
 H    11.835937381578313        4.3070956893719634      -0.16559498605057291     
 H    6.1776891168693542        10.780522776268995        1.2010416672735613     
 H    1.0610618952555584        1.1505649713531025       0.10617783710205889     
  8
# step:    4,  t(fs):    20.000,   E =  -0.470389E-03,   Ek =   0.128600E-03,   Ep =  -0.598990E-03
 H    1.2557775439052155        7.0488465607002775        1.3594807851380337     
 H    7.0708787544297635        1.3546640483324242        2.1142622912567466E-002
 H    5.1986380589495358        6.3968985181927485       -2.2615724561249011     
 H   0.20192541241543274        12.307875764923558       0.14127865999934397     
 H    1.9175328448188285        13.379400880919766        4.6617437786701652     
 H    11.834491631700502        4.3078597390314721      -0.16587343539653401     
 H    6.1726575697563115        10.779675475156941        1.2015187290348601     
 H    1.0640598356100097        1.1538557573263160       0.10611231579686430     
  8
# step:    5,  t(fs):    25.000,   E =  -0.470316E-03,   Ek =   0.158911E-03,   Ep =  -0.629227E-03
 H    1.2555305936446022        7.0475408902693646        1.3632394023964325     
 H    7.0669272595045909        1.3570445189027260        2.0576269559889001E-002
 H    5.2027486808457741        6.3939697640431348       -2.2622593048425892     
 H   0.18419975598372224        12.295621390290654        8.6963739635461751E-002
 H    1.9398277509379465        13.389388482130602        4.7133810900212634     
 H    11.832627059193587        4.3088400790151837      -0.16623211046833578     
 H    6.1661902540795435        10.778586438687288        1.2021347293376903     
 H    1.0679102973958312        1.1580851812445478       0.10602718439058710     
  8
# step:    6,  t(fs):    30.000,   E =  -0.470113E-03,   Ek =   0.179559E-03,   Ep =  -0.649672E-03
 H    1.2552855242591807        7.0459726859847196        1.3677665773050933     
 H    7.0621163029038048        1.3599443767610211        1.9890470404225914E-002
 H    5.2077017078667351        6.3904146615168607       -2.2630461869136451     
 H   0.16541653474535403        12.282395894441933        2.8160495930113501E-002
 H    1.9642022708892235        13.399806589767639        4.7689184312254040     
 H    11.830339401643469        4.3100352422024901      -0.16667151055806181     
 H    6.1582898561286363        10.777255311803817        1.2028909505380223     
 H    1.0726100531491944        1.1632519821050207       0.10592177209924677     
  8
# step:    7,  t(fs):    35.000,   E =  -0.469902E-03,   Ek =   0.192133E-03,   Ep =  -0.662035E-03
 H    1.2550727351056596        7.0441615825053692        1.3730230651087938     
 H    7.0564574827374784        1.3633573906763665        1.9089292992965568E-002
 H    5.2134573988567903        6.3862476883347741       -2.2639039844552356     
 H   0.14626077871165885        12.268592621188507       -3.3329862952638532E-002
 H    1.9899744003943391        13.410238137377046        4.8265610085389117     
 H    11.827623507067543        4.3114434781314230      -0.16719224398287497     
 H    6.1489604248162699        10.775681303569755        1.2037884756105410     
 H    1.0781549238958581        1.1693545428002594       0.10579524916993553     
  8
# step:    8,  t(fs):    40.000,   E =  -0.469731E-03,   Ek =   0.198851E-03,   Ep =  -0.668582E-03
 H    1.2549255289707408        7.0421316056660928        1.3789637061667448     
 H    7.0499648926756082        1.3672757624296294        1.8177745362644711E-002
 H    5.2199710938241459        6.3814858649275727       -2.2648003879065994     
 H   0.12720542773853913        12.254466145952181       -9.6264606681490505E-002
 H    2.0166743562767273        13.420400535834732        4.8850748403951769     
 H    11.824473368908736        4.3130627768635161      -0.16779502743491292     
 H    6.1382073556839485        10.773863206006276        1.2048281139699173     
 H    1.0845396275071515        1.1763908469035012       0.10564661615891804     
  8
# step:    9,  t(fs):    45.000,   E =  -0.469607E-03,   Ek =   0.201694E-03,   Ep =  -0.671301E-03
 H    1.2548792866191183        7.0399105934778401        1.3855382799843667     
 H    7.0426553317904457        1.3716899016992818        1.7161877427414814E-002
 H    5.2271940760788222        6.3761487914186148       -2.2657007977858385     
 H   0.10856430240032047        12.240166941903734      -0.15981990424091680     
 H    2.0439916009637553        13.430111726464233        4.9436471688113199     
 H    11.820882167086374        4.3148908962570296      -0.16848068539109773     
 H    6.1260372959895566        10.771799465278018        1.2060103713783923     
 H    1.0917575906572039        1.1843584280847503       0.10547468984675785     
  8
# step:   10,  t(fs):    50.000,   E =  -0.469524E-03,   Ek =   0.202158E-03,   Ep =  -0.671681E-03
 H    1.2549706794248667        7.0375294769318097        1.3926924611508846     
 H    7.0345485585310765        1.3765881619386739        1.6048899224838372E-002
 H    5.2350744148629191        6.3702587256852707       -2.2665692552578043     
 H    9.0539800113979468E-002   12.225772633740872      -0.22346513093053738     
 H    2.0717271403510940        13.439259757250746        5.0017606412942923     
 H    11.816842314770403        4.3169253924481685      -0.16925014955891174     
 H    6.1124580231132963        10.769488284826458        1.2073354479232961     
 H    1.0998007204179607        1.1932543117615018       0.10527808618434087     
  8
# step:   11,  t(fs):    55.000,   E =  -0.469470E-03,   Ek =   0.201277E-03,   Ep =  -0.670746E-03
 H    1.2552369272141879        7.0350215176239832        1.4003688195610866     
 H    7.0256675933808816        1.3819565363666846        1.4847316452332891E-002
 H    5.2435577590215505        6.3638407072796275       -2.2673693699887942     
 H    7.3259327275681380E-002   12.211312032385209      -0.28686683397729235     
 H    2.0997570719369265        13.447779602021885        5.0590970742065169     
 H    11.812345510580450        4.3191636533268944      -0.17010445832878282     
 H    6.0974783312626677        10.766927747024624        1.2088032514309441     
 H    1.1086591309132516        1.2030749485545931       0.10505520067438728     
  8
# step:   12,  t(fs):    60.000,   E =  -0.469436E-03,   Ek =   0.199728E-03,   Ep =  -0.669164E-03
 H    1.2557151076536957        7.0324215661154632        1.4085078166237284     
 H    7.0160390750164847        1.3877783135757684        1.3567083481163603E-002
 H    5.2525880581095059        6.3569227308848824       -2.2680652195215307     
 H    5.6801022767604709E-002   12.196782293143887      -0.34982090080503414     
 H    2.1280068254446540        13.455636820527099        5.1154693722187234     
 H    11.807382795977801        4.3216029347883476      -0.17104475620078738     
 H    6.0811079467378031        10.764115946418206        1.2104134176708130     
 H    1.1183208198780470        1.2138161391298485       0.10480418656332216     
  8
# step:   13,  t(fs):    65.000,   E =  -0.469416E-03,   Ek =   0.197936E-03,   Ep =  -0.667351E-03
 H    1.2564415214670746        7.0297653787705565        1.4170487600282853     
 H    7.0056936748261718        1.3940336929445623        1.2219773627606966E-002
 H    5.2621081940099312        6.3495359713796695       -2.2686222007547232     
 H    4.1211182489104929E-002   12.182160715689198      -0.41220659186976411     
 H    2.1564336892883800        13.462816503839170        5.1707752890602343     
 H    11.801944617708582        4.3242403995503791      -0.17207229315041672     
 H    6.0633574822954959        10.761051132363793        1.2121653319097441     
 H    1.1287712895008557        1.2254729500461747       0.10452293117943220     
  8
# step:   14,  t(fs):    70.000,   E =  -0.469404E-03,   Ek =   0.196154E-03,   Ep =  -0.665558E-03
 H    1.2574511145584490        7.0270890121607206        1.4259306902650621     
 H    6.9946665743497842        1.4006993611337488        1.0818765845331280E-002
 H    5.2720605131188645        6.3417150604301895       -2.2690078202515540     
 H    2.6515796774178285E-002   12.167412707891684      -0.47395609278413353     
 H    2.1850152161612266        13.469315962278651        5.2249667015460144     
 H    11.796020895267612        4.3270731583548718      -0.17318842389475841     
 H    6.0442384357059833        10.757731862033676        1.2140581485909157     
 H    1.1399931056494987        1.2380396202999611       0.10420903071352097     
  8
# step:   15,  t(fs):    75.000,   E =  -0.469398E-03,   Ek =   0.194526E-03,   Ep =  -0.663924E-03
 H    1.2587769543492633        7.0244283013661839        1.4350931816702797     
 H    6.9829980094293935        1.4077480325666361        9.3794461197376656E-003
 H    5.2823872558940730        6.3334984118046860       -2.2691924154230962     
 H    1.2728091760758025E-002   12.152497109073781      -0.53503460964881422     
 H    2.2137416219836830        13.475139951165158        5.2780294333156546     
 H    11.789601093484379        4.3300983134159425      -0.17439460701715340     
 H    6.0237632350763537        10.754157166830286        1.2160908073183248     
 H    1.1519653896076942        1.2515094583608304       0.10385976369546596     
  8
# step:   16,  t(fs):    80.000,   E =  -0.469396E-03,   Ek =   0.193122E-03,   Ep =  -0.662518E-03
 H    1.2604497538629880        7.0218184198808711        1.4444770489541798     
 H    6.9707338834254289        1.4151479590885034        7.9194206260086407E-003
 H    5.2930308866844351        6.3249285892498319       -2.2691498027078425     
 H   -1.4658031983896640E-004   12.137369726129318      -0.59542746724149687     
 H    2.2426108377170371        13.480297579852406        5.3299700967741632     
 H    11.782674300484850        4.3333130040417815      -0.17569240390610125     
 H    6.0019453327898358        10.750326736695317        1.2182620441647798     
 H    1.1646632369408620        1.2658747296454740       0.10347206336670743     
  8
# step:   17,  t(fs):    85.000,   E =  -0.469396E-03,   Ek =   0.191967E-03,   Ep =  -0.661363E-03
 H    1.2624974337040906        7.0192935129710241        1.4540249568509100     
 H    6.9579264495183724        1.4228624171096869        6.4587360862574036E-003
 H    5.3039343320223757        6.3160527066839522       -2.2688578514314401     
 H   -1.2107589050709296E-002   12.121985665751652      -0.65513180552832473     
 H    2.2716253044302475        13.484800325112239        5.3808075546582694     
 H    11.775229311455261        4.3367144544389449      -0.17708347746394565     
 H    5.9787993502253247        10.746241127929713        1.2205703977846400     
 H    1.1780570592806352        1.2811265345862928       0.10304248907403217     
  8
# step:   18,  t(fs):    90.000,   E =  -0.469397E-03,   Ek =   0.191057E-03,   Ep =  -0.660455E-03
 H    1.2649447092688697        7.0168863923185434        1.4636819357221054     
 H    6.9446350585842964        1.4308491846110014        5.0201006602478178E-003
 H    5.3150411399031512        6.3069228455199307       -2.2682989829563094     
 H   -2.3157006718964888E-002   12.106300853935860      -0.71415127861427941     
 H    2.3007899084472321        13.488660765493917        5.4305674090262430     
 H    11.767254718825301        4.3403000238086804      -0.17856959054382790     
 H    5.9543412763203998        10.741902001164704        1.2230142100358978     
 H    1.1921118469553136        1.2972546777308689       0.10256719670032145     
  8
# step:   19,  t(fs):    95.000,   E =  -0.469400E-03,   Ek =   0.190369E-03,   Ep =  -0.659769E-03
 H    1.2678126883426220        7.0146282769736388        1.4733958097578181     
 H    6.9309269640451188        1.4390600255418031        3.6290960793449881E-003
 H    5.3262955760243269        6.2975964680103331       -2.2674605940118644     
 H   -3.3298325546553029E-002   12.090273003781851      -0.77249270845595941     
 H    2.3301106608945430        13.491891785485027        5.4792784718709235     
 H    11.758739009696599        4.3440672589650786      -0.18015260408081155     
 H    5.9285887242642543        10.737312397161389        1.2255916208846576     
 H    1.2067863538646864        1.3142475286643818       0.10204190798629047     
  8
# step:   20,  t(fs):   100.000,   E =  -0.469403E-03,   Ek =   0.189867E-03,   Ep =  -0.659270E-03
 H    1.2711184626346368        7.0125485636311797        1.4831175470114470     
 H    6.9168781680403928        1.4474402054179576        2.3143685738860383E-003
 H    5.3376426756030568        6.2881367985468346       -2.2663354008273315     
 H   -4.2535652648844804E-002   12.073862206358296      -0.83016400854123018     
 H    2.3595938631301538        13.494506085573336        5.5269705330169021     
 H    11.749670671565347        4.3480139498454706      -0.18183447489636323     
 H    5.9015612520082259        10.732477059230614        1.2283005573294550     
 H    1.2220322112526294        1.3320918759798139       0.10146187836363400     
  8
# step:   21,  t(fs):   105.000,   E =  -0.469406E-03,   Ek =   0.189510E-03,   Ep =  -0.658917E-03
 H    1.2748746756937421        7.0106746077502677        1.4928015420724934     
 H    6.9025742838085451        1.4559280692517809        1.1077825071865105E-003
 H    5.3490282713131458        6.2786131369130933       -2.2649216970646560     
 H   -5.0873214419974472E-002   12.057031262630026      -0.88717293033991973     
 H    2.3892455892059066        13.496515891297996        5.5736729774669618     
 H    11.740038307621360        4.3521381884457053      -0.18361725317610778     
 H    5.8732807537703309        10.727402812278351        1.2311387159721812     
 H    1.2377929845925428        1.3507727760162831       0.10082186259226020     
  8
# step:   22,  t(fs):   110.000,   E =  -0.469410E-03,   Ek =   0.189251E-03,   Ep =  -0.658661E-03
 H    1.2790890489499944        7.0090314958744688        1.5024058429227123     
 H    6.8881113768895181        1.4644547210418251        4.4516678432380890E-005
 H    5.3603990191254285        6.2691010588711329       -2.2632235138768269     
 H   -5.8315060879533705E-002   12.039745837058273      -0.94352634031622273     
 H    2.4190713749169861        13.497932791452266        5.6194139585296572     
 H    11.729830763144577        4.3564384318978702      -0.18550307965070056     
 H    5.8437719312107665        10.722099009779932        1.2341035386926806     
 H    1.2540031982278623        1.3702733986077358       0.10011607705066743     
  8
# step:   23,  t(fs):   115.000,   E =  -0.469414E-03,   Ek =   0.189041E-03,   Ep =  -0.658455E-03
 H    1.2837638472996415        7.0076417885829452        1.5118923336274066     
 H    6.8735967323761287        1.4729438523518312       -8.3692069319226770E-004
 H    5.3717024443442583        6.2596824507659123       -2.2612506651511310     
 H   -6.4864898824004522E-002   12.021974488665556      -0.99922983641524676     
 H    2.4490760410383925        13.498767659725257        5.6642199335957377     
 H    11.719037264756134        4.3609135706164164      -0.18749418255063491     
 H    5.8130628543761320        10.716578061313378        1.2371921806649908     
 H    1.2705873662189167        1.3905748725622078        9.9338156952469586E-002
  8
# step:   24,  t(fs):   120.000,   E =  -0.469418E-03,   Ek =   0.188834E-03,   Ep =  -0.658252E-03
 H    1.2888952657191961        7.0065252128015540        1.5212268841505421     
 H    6.8591494769283621        1.4813117750694891       -1.4947857278688782E-003
 H    5.3828870297509610        6.2504453171017786       -2.2590186557800398     
 H   -7.0526007604314003E-002   12.003688618694477       -1.0542875790694850     
 H    2.4792636032003417        13.499030629810729        5.7081154351737489     
 H    11.707647574504428        4.3655630026703136      -0.18959287445967332     
 H    5.7811856237148653        10.710856054527413        1.2404014696928001     
 H    1.2874590853717593        1.4116561339077476        9.8481106050376008E-002
  8
# step:   25,  t(fs):   125.000,   E =  -0.469421E-03,   Ek =   0.188584E-03,   Ep =  -0.658005E-03
 H    1.2944727189916330        7.0056982818257572        1.5303794778842468     
 H    6.8449009630975501        1.4894677188608672       -1.8843309968452980E-003
 H    5.3939023662202343        6.2414832948336967       -2.2565484265052698     
 H   -7.5301207670780385E-002   11.984862362639831       -1.1087022551638281     
 H    2.5096372371505562        13.498731104320282        5.7511229929570193     
 H    11.695652160962684        4.3703867157917689      -0.19180154925999005     
 H    5.7481771452427228        10.704953486396178        1.2437278555515237     
 H    1.3045202675909975        1.4334937799151211        9.7537235563543628E-002
  8
# step:   26,  t(fs):   130.000,   E =  -0.469424E-03,   Ek =   0.188251E-03,   Ep =  -0.657675E-03
 H    1.3004780180219349        7.0051738215898673        1.5393243265469483     
 H    6.8309948009519905        1.4973144552710520       -1.9582055613641658E-003
 H    5.4046993831085004        6.2328948075134010       -2.2538659066146733     
 H   -7.9192862708991632E-002   11.965472446576603       -1.1624751219646265     
 H    2.5401992788833470        13.497877784619932        5.7932631511581549     
 H    11.683042389664125        4.3753853787011732      -0.19412267944614153     
 H    5.7140800309591802        10.698896119022390        1.2471673477243477     
 H    1.3216606127055119        1.4560619312890828        9.6498088187754877E-002
  8
# step:   27,  t(fs):   135.000,   E =  -0.469427E-03,   Ek =   0.187802E-03,   Ep =  -0.657228E-03
 H    1.3068844188569309        7.0049603828776297        1.5480399809862406     
 H    6.8175864004648199        1.5047493056598165       -1.6670491388909583E-003
 H    5.4152306707395370        6.2247817989436189       -2.2510013468436894     
 H   -8.2202903186399334E-002   11.945498022175531       -1.2156060968757136     
 H    2.5709512462130339        13.496478713190456        5.8345545442021125     
 H    11.669810735278068        4.3805604437035131      -0.19655881418477800     
 H    5.6789436353975962        10.692715974640477        1.2507154396444451     
 H    1.3387574478220114        1.4793321033924585        9.5354342240673809E-002
  8
# step:   28,  t(fs):   140.000,   E =  -0.469428E-03,   Ek =   0.187213E-03,   Ep =  -0.656642E-03
 H    1.3136555350771033        7.0050615219642971        1.5565094451359831     
 H    6.8048418715292724        1.5116655769258549       -9.6029876219217596E-004
 H    5.4254509001270117        6.2172480022385006       -2.2479884106037429     
 H   -8.4332863702237568E-002   11.924920490839341       -1.2680938713496057     
 H    2.6018938730805954        13.494541323086102        5.8750140064102689     
 H    11.655951017900954        4.3859142627769527      -0.19911257861119375     
 H    5.6428252360341400        10.686452482174225        1.2543670173627079     
 H    1.3556760815387601        1.5032730845782274        9.4095690448174771E-002
  8
# step:   29,  t(fs):   145.000,   E =  -0.469430E-03,   Ek =   0.186473E-03,   Ep =  -0.655902E-03
 H    1.3207441116419436        7.0054749375723828        1.5647202988903872     
 H    6.7929361224307581        1.5179544454078338        2.1278683732901295E-004
 H    5.4353173355939504        6.2103967283252448       -2.2448630132781600     
 H   -8.5583929500781308E-002   11.903723324514621       -1.3199360355152174     
 H    2.6330271510178278        13.492072491048660        5.9146566996791554     
 H    11.641458665655479        4.3914502196034260      -0.20178667497883193     
 H    5.6057913592105342        10.680153782771713        1.2581162505392600     
 H    1.3722708355358875        1.5278508153396200        9.2710687856477264E-002
  8
# step:   30,  t(fs):   150.000,   E =  -0.469430E-03,   Ek =   0.185580E-03,   Ep =  -0.655009E-03
 H    1.3280906698061954        7.0061914613450869        1.5726648338920213     
 H    6.7820500093363618        1.5235072747078096        1.9018985096705514E-003
 H    5.4447904244803143        6.2043281988386045       -2.2416619173377890     
 H   -8.5956989399810210E-002   11.881891888610051       -1.3711292054969959     
 H    2.6643503742814891        13.489078592160151        5.9534962487610068     
 H    11.626331005401173        4.3971728801450363      -0.20458388640726660     
 H    5.5679192429506363        10.673878192877220        1.2619564639395338     
 H    1.3883869147292391        1.5530282558995421        9.1186564170219184E-002
  8
# step:   31,  t(fs):   155.000,   E =  -0.469430E-03,   Ek =   0.184546E-03,   Ep =  -0.653976E-03
 H    1.3356220499606732        7.0071939140365815        1.5803402040595607     
 H    6.7723664268751937        1.5282183085982501        4.1542802424571063E-003
 H    5.4538344355030821        6.1991365007169783       -2.2384211149116644     
 H   -8.5452693544651709E-002   11.859413270860438       -1.4216691489216544     
 H    2.6958621865573633        13.485565554807655        5.9915448775117106     
 H    11.610567582688171        4.4030881643940942      -0.20750708409793389     
 H    5.5292984119441178        10.667695808915335        1.2658799883848837     
 H    1.4038632516016503        1.5787652222541679        8.9508997763040443E-002
  8
# step:   32,  t(fs):   160.000,   E =  -0.469429E-03,   Ek =   0.183395E-03,   Ep =  -0.652824E-03
 H    1.3432499040038257        7.0084558624091136        1.5877485899367449     
 H    6.7640653002922271        1.5319876292996479        7.0132271856639568E-003
 H    5.4624181049614000        6.1949062992013841       -2.2351740571993814     
 H   -8.4071515043022432E-002   11.836276118764880       -1.4715509063478405     
 H    2.7275606280488902        13.481538915331893        6.0288135419961417     
 H    11.594170511044247        4.4092035417449891      -0.21055923899070245     
 H    5.4900323161458751        10.661690215497208        1.2698779916008704     
 H    1.4185364021321571        1.6050181623343833        8.7661851848903599E-002
  8
# step:   33,  t(fs):   165.000,   E =  -0.469428E-03,   Ek =   0.182158E-03,   Ep =  -0.651586E-03
 H    1.3508692229257140        7.0099403447267861        1.5948973724344966     
 H    6.7573175464148809        1.5347242205949390        1.0516564620877846E-002
 H    5.4705152397600205        6.1917095045672390       -2.2319498180777657     
 H   -8.1813814807351906E-002   11.812470487288442       -1.5207689077129007     
 H    2.7594431823571539        13.477003872130897        6.0653120580377440     
 H    11.577144849170374        4.4155282519587349      -0.21374343889930988     
 H    5.4502399509915156        10.655960226954965        1.2739402919039184     
 H    1.4322454747732933        1.6317398363614950        8.5626877723339698E-002
  8
# step:   34,  t(fs):   170.000,   E =  -0.469427E-03,   Ek =   0.180871E-03,   Ep =  -0.650298E-03
 H    1.3583570299584031        7.0115986777817758        1.6017993070883532     
 H    6.7522782100596759        1.5363489329334847        1.4695212719596997E-002
 H    5.4781052202514076        6.1896021351923594       -2.2287713024175186     
 H   -7.8679908919961447E-002   11.787987697773316       -1.5693170836341750     
 H    2.7915068229274724        13.471965339250994        6.1010492219402801     
 H    11.559499002519992        4.4220735528020150      -0.21706291216594126     
 H    5.4100573327556463        10.650621547952493        1.2780551614546960     
 H    1.4448379420329645        1.6588788608970597        8.3383395045108638E-002
  8
# step:   35,  t(fs):   175.000,   E =  -0.469426E-03,   Ek =   0.179569E-03,   Ep =  -0.648995E-03
 H    1.3655714247146982        7.0133695164218324        1.6084726844810655     
 H    6.7490791404152697        1.5367971229788870        1.9571949735532720E-002
 H    5.4851733460028953        6.1886216438900119       -2.2256536224769645     
 H   -7.4670137605113970E-002   11.762820208404451       -1.6171889717058712     
 H    2.8237480590471868        13.466427999655235        6.1360329238761988     
 H    11.541245142942616        4.4288529940131367      -0.22052105878631623     
 H    5.3696386471303361        10.645808182009745        1.2822091310931647     
 H    1.4561760289377126        1.6863790772102005        8.0907963813590139E-002
  8
# step:   36,  t(fs):   180.000,   E =  -0.469425E-03,   Ek =   0.178284E-03,   Ep =  -0.647709E-03
 H    1.3723512260515227        7.0151784056732547        1.6149414561198492     
 H    6.7478217226530379        1.5360207406197555        2.5160480102874465E-002
 H    5.4917109748295694        6.1887849660482459       -2.2226027636669787     
 H   -6.9784934492647693E-002   11.736961496082504       -1.6643778179173474     
 H    2.8561629814713032        13.460396358433222        6.1702702539484422     
 H    11.522399636495917        4.4358827151442597      -0.22412148974415061     
 H    5.3291568256640964        10.641673348700072        1.2863868155439409     
 H    1.4661432189128010        1.7141787138821829        7.8174065643770302E-002
  8
# step:   37,  t(fs):   185.000,   E =  -0.469425E-03,   Ek =   0.177042E-03,   Ep =  -0.646468E-03
 H    1.3785165228820411        7.0169381389105592        1.6212352983316076     
 H    6.7485702889968575        1.5339896662930317        3.1464892833732355E-002
 H    5.4977154196494267        6.1900875022606296       -2.2196146418274623     
 H   -6.4024894346482675E-002   11.710405949158371       -1.7108766730755272     
 H    2.8887473077540462        13.453874796212549        6.2037676012687468     
 H    11.502983465135447        4.4431817619325882      -0.22786807492283390     
 H    5.2888032412050840        10.638389597436037        1.2905707855943531     
 H    1.4746503003091811        1.7422093323797303        7.5151811827783493E-002
  8
# step:   38,  t(fs):   190.000,   E =  -0.469425E-03,   Ek =   0.175865E-03,   Ep =  -0.645290E-03
 H    1.3838704877253858        7.0185502986301689        1.6273895807463621     
 H    6.7513468652056163        1.5306921594251126        3.8479561824075199E-002
 H    5.5031895874422858        6.1925031674840554       -2.2166746193941851     
 H   -5.7390836878863011E-002   11.683148770180075       -1.7566784837240581     
 H    2.9214964272924764        13.446867622948988        6.2365307466043030     
 H    11.483022622826965        4.4507724120812746      -0.23176499939776293     
 H    5.2487861649429126        10.636147741789005        1.2947415215558464     
 H    1.4816403330288228        1.7703945720448173        7.1807691815819252E-002
  8
# step:   39,  t(fs):   195.000,   E =  -0.469425E-03,   Ek =   0.174771E-03,   Ep =  -0.644196E-03
 H    1.3882028140869385        7.0199083849650856        1.6334452024746897     
 H    6.7561278380946561        1.5261343583846210        4.6189498239381517E-002
 H    5.5081413672701389        6.1959855339637233       -2.2137575027786585     